ANIMSTEPS   6
CRYSTAL
PRIMVEC
   -2.419833843    0.000000000    2.419833843
    0.000000000    2.419833843    2.419833843
   -2.419833843    2.419833843    0.000000000
PRIMCOORD  1
      2   1
   Zn     0.00000   0.00000   0.00000   0.00000  -0.07071   0.00000
   S     -2.41983   2.41983   2.41983   0.00000  -0.07071   0.00000
PRIMCOORD  2
      2   1
   Zn     0.00000   0.00000   0.00000  -0.07071   0.00000   0.00000
   S     -2.41983   2.41983   2.41983  -0.07071   0.00000   0.00000
PRIMCOORD  3
      2   1
   Zn     0.00000   0.00000   0.00000   0.00000   0.00000  -0.07071
   S     -2.41983   2.41983   2.41983   0.00000   0.00000  -0.07071
PRIMCOORD  4
      2   1
   Zn     0.00000   0.00000   0.00000   0.00000   0.04403   0.00000
   S     -2.41983   2.41983   2.41983   0.00000  -0.08978   0.00000
PRIMCOORD  5
      2   1
   Zn     0.00000   0.00000   0.00000   0.00000   0.00000  -0.04403
   S     -2.41983   2.41983   2.41983   0.00000   0.00000   0.08978
PRIMCOORD  6
      2   1
   Zn     0.00000   0.00000   0.00000  -0.04403   0.00000   0.00000
   S     -2.41983   2.41983   2.41983   0.08978   0.00000   0.00000
