[Molden Format]
[FREQ]
    0.00
    0.00
    0.00
  194.07
  194.07
  194.07
[FR-COORD]
   Zn          0.00000        0.00000        0.00000
   S          -4.57282        4.57282        4.57282
[FR-NORM-COORD]
 vibration     1
   0.00000  -0.70711   0.00000
   0.00000  -0.70711   0.00000
 vibration     2
  -0.70711   0.00000   0.00000
  -0.70711   0.00000   0.00000
 vibration     3
   0.00000   0.00000  -0.70711
   0.00000   0.00000  -0.70711
 vibration     4
   0.00000   0.44033   0.00000
   0.00000  -0.89783   0.00000
 vibration     5
   0.00000   0.00000  -0.44033
   0.00000   0.00000   0.89783
 vibration     6
  -0.44033   0.00000   0.00000
   0.89783   0.00000   0.00000
