
     Program PHONON v.6.3MaX starts on  5Jul2020 at  8: 9:54 

     This program is part of the open-source Quantum ESPRESSO suite
     for quantum simulation of materials; please cite
         "P. Giannozzi et al., J. Phys.:Condens. Matter 21 395502 (2009);
         "P. Giannozzi et al., J. Phys.:Condens. Matter 29 465901 (2017);
          URL http://www.quantum-espresso.org", 
     in publications or presentations arising from this work. More details at
     http://www.quantum-espresso.org/quote

     Parallel version (MPI), running on     4 processors

     MPI processes distributed on     1 nodes
     R & G space division:  proc/nbgrp/npool/nimage =       4

     Reading data from directory:
     calc/ZnS-RS.save/

     IMPORTANT: XC functional enforced from input :
     Exchange-correlation      = PBE ( 1  4  3  4 0 0)
     Any further DFT definition will be discarded
     Please, verify this is what you really want

 
     Parallelization info
     --------------------
     sticks:   dense  smooth     PW     G-vecs:    dense   smooth      PW
     Min          87      87     30                 1068     1068     205
     Max          88      88     31                 1071     1071     206
     Sum         349     349    121                 4279     4279     821
 

     Check: negative/imaginary core charge=   -0.000002    0.000000

     Calculation of q =    0.0000000   0.0000000   0.0000000

     phonons of ZnS-RS at Gamma point                                           

     bravais-lattice index     =            2
     lattice parameter (alat)  =       9.1456  a.u.
     unit-cell volume          =     191.2420 (a.u.)^3
     number of atoms/cell      =            2
     number of atomic types    =            2
     kinetic-energy cut-off    =      30.0000  Ry
     charge density cut-off    =     120.0000  Ry
     convergence threshold     =      5.0E-16
     beta                      =       0.7000
     number of iterations used =            4
     Exchange-correlation      = PBE ( 1  4  3  4 0 0)


     celldm(1)=    9.14565  celldm(2)=    0.00000  celldm(3)=    0.00000
     celldm(4)=    0.00000  celldm(5)=    0.00000  celldm(6)=    0.00000

     crystal axes: (cart. coord. in units of alat)
               a(1) = ( -0.5000  0.0000  0.5000 )  
               a(2) = (  0.0000  0.5000  0.5000 )  
               a(3) = ( -0.5000  0.5000  0.0000 )  

     reciprocal axes: (cart. coord. in units 2 pi/alat)
               b(1) = ( -1.0000 -1.0000  1.0000 )  
               b(2) = (  1.0000  1.0000  1.0000 )  
               b(3) = ( -1.0000  1.0000 -1.0000 )  


     Atoms inside the unit cell: 

     Cartesian axes

     site n.  atom      mass           positions (alat units)
        1     Zn  65.3800   tau(    1) = (    0.00000    0.00000    0.00000  )
        2     S   32.0650   tau(    2) = (   -0.50000    0.50000    0.50000  )

     Computing dynamical matrix for 
                    q = (   0.0000000   0.0000000   0.0000000 )
 
     49 Sym.Ops. (with q -> -q+G )


     G cutoff =  254.2438  (   1071 G-vectors)     FFT grid: ( 24, 24, 24)
     number of k points=    10
                       cart. coord. in units 2pi/alat
        k(    1) = (   0.0000000   0.0000000   0.0000000), wk =   0.0160000
        k(    2) = (  -0.2000000   0.2000000  -0.2000000), wk =   0.1280000
        k(    3) = (  -0.4000000   0.4000000  -0.4000000), wk =   0.1280000
        k(    4) = (   0.0000000   0.4000000   0.0000000), wk =   0.0960000
        k(    5) = (  -0.2000000   0.6000000  -0.2000000), wk =   0.3840000
        k(    6) = (   0.6000000  -0.2000000   0.6000000), wk =   0.3840000
        k(    7) = (   0.4000000   0.0000000   0.4000000), wk =   0.1920000
        k(    8) = (   0.0000000   0.8000000   0.0000000), wk =   0.0960000
        k(    9) = (   0.8000000   0.0000000   0.8000000), wk =   0.1920000
        k(   10) = (   0.6000000  -0.2000000   1.0000000), wk =   0.3840000

     PseudoPot. # 1 for Zn read from file:
     ~/Documents/quantum_simulations/PP_eff/Zn_pbe_v1.uspp.F.UPF
     MD5 check sum: Not computed, couldn't open file
     Pseudo is Ultrasoft, Zval = 20.0
     Generated by new atomic code, or converted to UPF format
     Using radial grid of  943 points,  6 beta functions with: 
                l(1) =   0
                l(2) =   0
                l(3) =   1
                l(4) =   1
                l(5) =   2
                l(6) =   2
     Q(r) pseudized with  8 coefficients,  rinner =    1.100   1.100   1.100
                                                       1.100   1.100

     PseudoPot. # 2 for S  read from file:
     ~/Documents/quantum_simulations/PP_eff/s_pbe_v1.4.uspp.F.UPF
     MD5 check sum: Not computed, couldn't open file
     Pseudo is Ultrasoft + core correction, Zval =  6.0
     Generated by new atomic code, or converted to UPF format
     Using radial grid of  907 points,  6 beta functions with: 
                l(1) =   0
                l(2) =   0
                l(3) =   1
                l(4) =   1
                l(5) =   2
                l(6) =   2
     Q(r) pseudized with  8 coefficients,  rinner =    1.300   1.300   1.300
                                                       1.300   1.300

     Mode symmetry, O_h (m-3m)  point group:


     Electric field:
     Dielectric constant
     Born effective charges as d Force / d E


     Atomic displacements:
     There are   2 irreducible representations

     Representation     1      3 modes -T_1u G_15  G_4-  To be done

     Representation     2      3 modes -T_1u G_15  G_4-  To be done



     Alpha used in Ewald sum =   1.1000
     PHONON       :     0.34s CPU         0.36s WALL


     Electric Fields Calculation

      iter #   1 total cpu time :     1.8 secs   av.it.:   7.8
      thresh= 1.000E-02 alpha_mix =  0.700 |ddv_scf|^2 =  5.577E-07

      iter #   2 total cpu time :     2.3 secs   av.it.:  14.7
      thresh= 7.468E-05 alpha_mix =  0.700 |ddv_scf|^2 =  5.995E-08

      iter #   3 total cpu time :     2.9 secs   av.it.:  14.7
      thresh= 2.448E-05 alpha_mix =  0.700 |ddv_scf|^2 =  9.016E-10

      iter #   4 total cpu time :     3.5 secs   av.it.:  15.4
      thresh= 3.003E-06 alpha_mix =  0.700 |ddv_scf|^2 =  3.858E-12

      iter #   5 total cpu time :     4.1 secs   av.it.:  15.8
      thresh= 1.964E-07 alpha_mix =  0.700 |ddv_scf|^2 =  5.737E-14

      iter #   6 total cpu time :     4.7 secs   av.it.:  16.1
      thresh= 2.395E-08 alpha_mix =  0.700 |ddv_scf|^2 =  7.518E-16

      iter #   7 total cpu time :     5.4 secs   av.it.:  16.6
      thresh= 2.742E-09 alpha_mix =  0.700 |ddv_scf|^2 =  5.301E-18

     End of electric fields calculation

          Dielectric constant in cartesian axis 

          (      12.681696803       0.000000000       0.000000000 )
          (       0.000000000      12.681696803      -0.000000000 )
          (       0.000000000      -0.000000000      12.681696803 )

          Effective charges (d Force / dE) in cartesian axis

           atom      1   Zn 
      Ex  (        3.59074        0.00000        0.00000 )
      Ey  (        0.00000        3.59074        0.00000 )
      Ez  (        0.00000        0.00000        3.59074 )
           atom      2   S  
      Ex  (       -3.60224        0.00000        0.00000 )
      Ey  (        0.00000       -3.60224       -0.00000 )
      Ez  (        0.00000       -0.00000       -3.60224 )


     Representation #  1 modes #   1  2  3

     Self-consistent Calculation

      iter #   1 total cpu time :     6.2 secs   av.it.:   8.3
      thresh= 1.000E-02 alpha_mix =  0.700 |ddv_scf|^2 =  7.469E-07

      iter #   2 total cpu time :     6.9 secs   av.it.:  16.4
      thresh= 8.642E-05 alpha_mix =  0.700 |ddv_scf|^2 =  7.448E-08

      iter #   3 total cpu time :     7.5 secs   av.it.:  15.2
      thresh= 2.729E-05 alpha_mix =  0.700 |ddv_scf|^2 =  1.670E-09

      iter #   4 total cpu time :     8.1 secs   av.it.:  15.5
      thresh= 4.086E-06 alpha_mix =  0.700 |ddv_scf|^2 =  7.860E-13

      iter #   5 total cpu time :     8.7 secs   av.it.:  16.3
      thresh= 8.866E-08 alpha_mix =  0.700 |ddv_scf|^2 =  2.455E-14

      iter #   6 total cpu time :     9.4 secs   av.it.:  16.0
      thresh= 1.567E-08 alpha_mix =  0.700 |ddv_scf|^2 =  8.695E-17

     End of self-consistent calculation

     Convergence has been achieved 


     Representation #  2 modes #   4  5  6

     Self-consistent Calculation

      iter #   1 total cpu time :     9.9 secs   av.it.:  11.9
      thresh= 1.000E-02 alpha_mix =  0.700 |ddv_scf|^2 =  6.331E-05

      iter #   2 total cpu time :    10.5 secs   av.it.:  15.9
      thresh= 7.957E-04 alpha_mix =  0.700 |ddv_scf|^2 =  1.448E-06

      iter #   3 total cpu time :    11.2 secs   av.it.:  17.3
      thresh= 1.203E-04 alpha_mix =  0.700 |ddv_scf|^2 =  1.201E-07

      iter #   4 total cpu time :    11.9 secs   av.it.:  16.5
      thresh= 3.466E-05 alpha_mix =  0.700 |ddv_scf|^2 =  8.243E-10

      iter #   5 total cpu time :    12.5 secs   av.it.:  17.2
      thresh= 2.871E-06 alpha_mix =  0.700 |ddv_scf|^2 =  1.770E-11

      iter #   6 total cpu time :    13.2 secs   av.it.:  16.9
      thresh= 4.208E-07 alpha_mix =  0.700 |ddv_scf|^2 =  5.572E-14

      iter #   7 total cpu time :    13.8 secs   av.it.:  16.7
      thresh= 2.360E-08 alpha_mix =  0.700 |ddv_scf|^2 =  1.432E-15

      iter #   8 total cpu time :    14.5 secs   av.it.:  17.2
      thresh= 3.784E-09 alpha_mix =  0.700 |ddv_scf|^2 =  7.235E-18

     End of self-consistent calculation

     Convergence has been achieved 
 
     Number of q in the star =    1
     List of q in the star:
          1   0.000000000   0.000000000   0.000000000

          Dielectric constant in cartesian axis 

          (      12.681696803       0.000000000       0.000000000 )
          (       0.000000000      12.681696803      -0.000000000 )
          (       0.000000000      -0.000000000      12.681696803 )

          Effective charges (d Force / dE) in cartesian axis

           atom      1   Zn 
      Ex  (        3.59074        0.00000        0.00000 )
      Ey  (        0.00000        3.59074        0.00000 )
      Ez  (        0.00000        0.00000        3.59074 )
           atom      2   S  
      Ex  (       -3.60224        0.00000        0.00000 )
      Ey  (        0.00000       -3.60224       -0.00000 )
      Ez  (        0.00000       -0.00000       -3.60224 )

     Diagonalizing the dynamical matrix

     q = (    0.000000000   0.000000000   0.000000000 ) 

 **************************************************************************
     freq (    1) =      -0.816806 [THz] =     -27.245720 [cm-1]
     freq (    2) =      -0.816806 [THz] =     -27.245720 [cm-1]
     freq (    3) =      -0.816806 [THz] =     -27.245720 [cm-1]
     freq (    4) =       5.769731 [THz] =     192.457520 [cm-1]
     freq (    5) =       5.769731 [THz] =     192.457520 [cm-1]
     freq (    6) =       5.769731 [THz] =     192.457520 [cm-1]
 **************************************************************************

     Mode symmetry, O_h (m-3m)  point group:

     freq (  1 -  3) =        -27.2  [cm-1]   --> T_1u G_15  G_4- I  
     freq (  4 -  6) =        192.5  [cm-1]   --> T_1u G_15  G_4- I  
 
     PHONON       :    13.72s CPU        14.54s WALL

     INITIALIZATION: 
     phq_setup    :      0.01s CPU      0.00s WALL (       1 calls)
     phq_init     :      0.12s CPU      0.12s WALL (       1 calls)
 
     phq_init     :      0.12s CPU      0.12s WALL (       1 calls)
     set_drhoc    :      0.01s CPU      0.01s WALL (       3 calls)
     init_vloc    :      0.00s CPU      0.00s WALL (       1 calls)
     init_us_1    :      0.10s CPU      0.10s WALL (       1 calls)
     newd         :      0.00s CPU      0.01s WALL (       1 calls)
     dvanqq       :      0.02s CPU      0.02s WALL (       1 calls)
     drho         :      0.06s CPU      0.06s WALL (       1 calls)
     cmpt_qdipol  :      0.00s CPU      0.00s WALL (       1 calls)
 
     DIELECTRIC CONSTANT AND EFFECTIVE CHARGES:
     solve_e      :      4.74s CPU      5.02s WALL (       1 calls)
     dielec       :      0.00s CPU      0.00s WALL (       1 calls)
     zstar_eu     :      0.40s CPU      0.41s WALL (       1 calls)
 
     DYNAMICAL MATRIX:
     dynmat0      :      0.03s CPU      0.03s WALL (       1 calls)
     phqscf       :      8.24s CPU      8.74s WALL (       1 calls)
     dynmatrix    :      0.00s CPU      0.00s WALL (       1 calls)
 
     phqscf       :      8.24s CPU      8.74s WALL (       1 calls)
     solve_linter :      8.22s CPU      8.72s WALL (       2 calls)
     drhodv       :      0.02s CPU      0.02s WALL (       2 calls)
 
     dynmat0      :      0.03s CPU      0.03s WALL (       1 calls)
     dynmat_us    :      0.02s CPU      0.02s WALL (       1 calls)
     d2ionq       :      0.00s CPU      0.00s WALL (       1 calls)
     dynmatcc     :      0.01s CPU      0.01s WALL (       1 calls)
 
     dynmat_us    :      0.02s CPU      0.02s WALL (       1 calls)
     addusdynmat  :      0.00s CPU      0.00s WALL (       1 calls)
 
     phqscf       :      8.24s CPU      8.74s WALL (       1 calls)
     solve_linter :      8.22s CPU      8.72s WALL (       2 calls)
 
     solve_linter :      8.22s CPU      8.72s WALL (       2 calls)
     dvqpsi_us    :      0.14s CPU      0.14s WALL (     120 calls)
     ortho        :      0.10s CPU      0.11s WALL (     660 calls)
     cgsolve      :     10.79s CPU     11.46s WALL (     660 calls)
     incdrhoscf   :      0.44s CPU      0.54s WALL (     660 calls)
     addusddens   :      0.07s CPU      0.07s WALL (      16 calls)
     vpsifft      :      0.28s CPU      0.24s WALL (     360 calls)
     dv_of_drho   :      0.02s CPU      0.05s WALL (      66 calls)
     mix_pot      :      0.04s CPU      0.02s WALL (      21 calls)
     psymdvscf    :      0.56s CPU      0.56s WALL (      14 calls)
     newdq        :      0.18s CPU      0.21s WALL (      21 calls)
     adddvscf     :      0.02s CPU      0.03s WALL (     540 calls)
     drhodvus     :      0.00s CPU      0.00s WALL (       2 calls)
 
     dvqpsi_us    :      0.14s CPU      0.14s WALL (     120 calls)
     dvqpsi_us_on :      0.06s CPU      0.06s WALL (     120 calls)
 
     cgsolve      :     10.79s CPU     11.46s WALL (     660 calls)
     ch_psi       :     10.53s CPU     11.13s WALL (   14526 calls)
 
     ch_psi       :     10.53s CPU     11.13s WALL (   14526 calls)
     h_psi        :      8.04s CPU      8.46s WALL (   14526 calls)
     last         :      1.88s CPU      1.98s WALL (   14526 calls)
 
     h_psi        :      8.04s CPU      8.46s WALL (   14526 calls)
     add_vuspsi   :      0.59s CPU      0.58s WALL (   14526 calls)
 
     incdrhoscf   :      0.44s CPU      0.54s WALL (     660 calls)
     addusdbec    :      0.05s CPU      0.05s WALL (     720 calls)
 
     drhodvus     :      0.00s CPU      0.00s WALL (       2 calls)
 
      General routines
     calbec       :      1.44s CPU      1.69s WALL (   32272 calls)
     fft          :      0.04s CPU      0.08s WALL (    1181 calls)
     ffts         :      0.00s CPU      0.01s WALL (     138 calls)
     fftw         :      7.07s CPU      7.39s WALL (  316434 calls)
     davcio       :      0.06s CPU      0.05s WALL (    3086 calls)
     write_rec    :      0.02s CPU      0.02s WALL (      23 calls)
 
 
     PHONON       :    13.72s CPU        14.54s WALL

 
   This run was terminated on:   8:10: 9   5Jul2020            

=------------------------------------------------------------------------------=
   JOB DONE.
=------------------------------------------------------------------------------=
