
     Program DYNMAT v.6.3MaX starts on  5Jul2020 at  8:11: 0 

     This program is part of the open-source Quantum ESPRESSO suite
     for quantum simulation of materials; please cite
         "P. Giannozzi et al., J. Phys.:Condens. Matter 21 395502 (2009);
         "P. Giannozzi et al., J. Phys.:Condens. Matter 29 465901 (2017);
          URL http://www.quantum-espresso.org", 
     in publications or presentations arising from this work. More details at
     http://www.quantum-espresso.org/quote

     Parallel version (MPI), running on     4 processors

     MPI processes distributed on     1 nodes
     R & G space division:  proc/nbgrp/npool/nimage =       4

     Reading Dynamical Matrix from file ZnS-RS.gamma
     ...Force constants read
     ...epsilon and Z* read
     Acoustic Sum Rule: || Z*(ASR) - Z*(orig)|| =    1.408206E-02
     Acoustic Sum Rule: ||dyn(ASR) - dyn(orig)||=    7.919916E-03
     A direction for q was not specified:TO-LO splitting will be absent

     Polarizability (A^3 units)
     multiply by 0.204336 for Clausius-Mossotti correction
        26.344060    0.000000    0.000000
         0.000000   26.344060    0.000000
         0.000000    0.000000   26.344060

     IR activities are in (D/A)^2/amu units

# mode   [cm-1]    [THz]      IR
    1      0.00    0.0000    0.0000
    2      0.00    0.0000    0.0000
    3      0.00    0.0000    0.0000
    4    194.07    5.8179   13.8711
    5    194.07    5.8179   13.8711
    6    194.07    5.8179   13.8711
 
     DYNMAT       :     0.00s CPU         0.01s WALL

 
   This run was terminated on:   8:11: 0   5Jul2020            

=------------------------------------------------------------------------------=
   JOB DONE.
=------------------------------------------------------------------------------=
