
     Program PWSCF v.6.3MaX starts on  5Jul2020 at  8: 9:39 

     This program is part of the open-source Quantum ESPRESSO suite
     for quantum simulation of materials; please cite
         "P. Giannozzi et al., J. Phys.:Condens. Matter 21 395502 (2009);
         "P. Giannozzi et al., J. Phys.:Condens. Matter 29 465901 (2017);
          URL http://www.quantum-espresso.org", 
     in publications or presentations arising from this work. More details at
     http://www.quantum-espresso.org/quote

     Parallel version (MPI), running on     4 processors

     MPI processes distributed on     1 nodes
     R & G space division:  proc/nbgrp/npool/nimage =       4
     Waiting for input...
     Reading input from standard input

     Current dimensions of program PWSCF are:
     Max number of different atomic species (ntypx) = 10
     Max number of k-points (npk) =  40000
     Max angular momentum in pseudopotentials (lmaxx) =  3

     Subspace diagonalization in iterative solution of the eigenvalue problem:
     a serial algorithm will be used

 
     Parallelization info
     --------------------
     sticks:   dense  smooth     PW     G-vecs:    dense   smooth      PW
     Min          87      87     30                 1068     1068     205
     Max          88      88     31                 1071     1071     206
     Sum         349     349    121                 4279     4279     821
 


     bravais-lattice index     =            2
     lattice parameter (alat)  =       9.1456  a.u.
     unit-cell volume          =     191.2420 (a.u.)^3
     number of atoms/cell      =            2
     number of atomic types    =            2
     number of electrons       =        26.00
     number of Kohn-Sham states=           13
     kinetic-energy cutoff     =      30.0000  Ry
     charge density cutoff     =     120.0000  Ry
     convergence threshold     =      1.0E-08
     mixing beta               =       0.7000
     number of iterations used =            8  plain     mixing
     Exchange-correlation      =  SLA  PW   PBX  PBC ( 1  4  3  4 0 0)

     celldm(1)=   9.145647  celldm(2)=   0.000000  celldm(3)=   0.000000
     celldm(4)=   0.000000  celldm(5)=   0.000000  celldm(6)=   0.000000

     crystal axes: (cart. coord. in units of alat)
               a(1) = (  -0.500000   0.000000   0.500000 )  
               a(2) = (   0.000000   0.500000   0.500000 )  
               a(3) = (  -0.500000   0.500000   0.000000 )  

     reciprocal axes: (cart. coord. in units 2 pi/alat)
               b(1) = ( -1.000000 -1.000000  1.000000 )  
               b(2) = (  1.000000  1.000000  1.000000 )  
               b(3) = ( -1.000000  1.000000 -1.000000 )  


     PseudoPot. # 1 for Zn read from file:
     ~/Documents/quantum_simulations/PP_eff/Zn_pbe_v1.uspp.F.UPF
     MD5 check sum: Not computed, couldn't open file
     Pseudo is Ultrasoft, Zval = 20.0
     Generated by new atomic code, or converted to UPF format
     Using radial grid of  943 points,  6 beta functions with: 
                l(1) =   0
                l(2) =   0
                l(3) =   1
                l(4) =   1
                l(5) =   2
                l(6) =   2
     Q(r) pseudized with  8 coefficients,  rinner =    1.100   1.100   1.100
                                                       1.100   1.100

     PseudoPot. # 2 for S  read from file:
     ~/Documents/quantum_simulations/PP_eff/s_pbe_v1.4.uspp.F.UPF
     MD5 check sum: Not computed, couldn't open file
     Pseudo is Ultrasoft + core correction, Zval =  6.0
     Generated by new atomic code, or converted to UPF format
     Using radial grid of  907 points,  6 beta functions with: 
                l(1) =   0
                l(2) =   0
                l(3) =   1
                l(4) =   1
                l(5) =   2
                l(6) =   2
     Q(r) pseudized with  8 coefficients,  rinner =    1.300   1.300   1.300
                                                       1.300   1.300

     atomic species   valence    mass     pseudopotential
        Zn            20.00    65.38000     Zn( 1.00)
        S              6.00    32.06500     S ( 1.00)

     48 Sym. Ops., with inversion, found



   Cartesian axes

     site n.     atom                  positions (alat units)
         1           Zn  tau(   1) = (   0.0000000   0.0000000   0.0000000  )
         2           S   tau(   2) = (  -0.5000000   0.5000000   0.5000000  )

     number of k points=    10
                       cart. coord. in units 2pi/alat
        k(    1) = (   0.0000000   0.0000000   0.0000000), wk =   0.0160000
        k(    2) = (  -0.2000000   0.2000000  -0.2000000), wk =   0.1280000
        k(    3) = (  -0.4000000   0.4000000  -0.4000000), wk =   0.1280000
        k(    4) = (   0.0000000   0.4000000   0.0000000), wk =   0.0960000
        k(    5) = (  -0.2000000   0.6000000  -0.2000000), wk =   0.3840000
        k(    6) = (   0.6000000  -0.2000000   0.6000000), wk =   0.3840000
        k(    7) = (   0.4000000   0.0000000   0.4000000), wk =   0.1920000
        k(    8) = (   0.0000000   0.8000000   0.0000000), wk =   0.0960000
        k(    9) = (   0.8000000   0.0000000   0.8000000), wk =   0.1920000
        k(   10) = (   0.6000000  -0.2000000   1.0000000), wk =   0.3840000

     Dense  grid:     4279 G-vectors     FFT dimensions: (  24,  24,  24)

     Estimated max dynamical RAM per process >       6.69 MB

     Estimated total dynamical RAM >      26.77 MB

     Check: negative/imaginary core charge=   -0.000002    0.000000

     Initial potential from superposition of free atoms

     starting charge   25.99982, renormalised to   26.00000
     Starting wfcs are   17 randomized atomic wfcs

     total cpu time spent up to now is        0.2 secs

     Self-consistent Calculation

     iteration #  1     ecut=    30.00 Ry     beta= 0.70
     Davidson diagonalization with overlap
     ethr =  1.00E-02,  avg # of iterations =  1.3

     Threshold (ethr) on eigenvalues was too large:
     Diagonalizing with lowered threshold

     Davidson diagonalization with overlap
     ethr =  4.43E-04,  avg # of iterations =  2.0

     total cpu time spent up to now is        0.3 secs

     total energy              =    -485.59248783 Ry
     Harris-Foulkes estimate   =    -485.68216513 Ry
     estimated scf accuracy    <       0.11956633 Ry

     iteration #  2     ecut=    30.00 Ry     beta= 0.70
     Davidson diagonalization with overlap
     ethr =  4.60E-04,  avg # of iterations =  2.9

     total cpu time spent up to now is        0.3 secs

     total energy              =    -485.61802442 Ry
     Harris-Foulkes estimate   =    -485.68227648 Ry
     estimated scf accuracy    <       0.12070194 Ry

     iteration #  3     ecut=    30.00 Ry     beta= 0.70
     Davidson diagonalization with overlap
     ethr =  4.60E-04,  avg # of iterations =  2.3

     total cpu time spent up to now is        0.4 secs

     total energy              =    -485.64565360 Ry
     Harris-Foulkes estimate   =    -485.64717709 Ry
     estimated scf accuracy    <       0.00303451 Ry

     iteration #  4     ecut=    30.00 Ry     beta= 0.70
     Davidson diagonalization with overlap
     ethr =  1.17E-05,  avg # of iterations =  2.3

     total cpu time spent up to now is        0.4 secs

     total energy              =    -485.64654613 Ry
     Harris-Foulkes estimate   =    -485.64655737 Ry
     estimated scf accuracy    <       0.00014606 Ry

     iteration #  5     ecut=    30.00 Ry     beta= 0.70
     Davidson diagonalization with overlap
     ethr =  5.62E-07,  avg # of iterations =  2.0

     total cpu time spent up to now is        0.5 secs

     total energy              =    -485.64657001 Ry
     Harris-Foulkes estimate   =    -485.64657163 Ry
     estimated scf accuracy    <       0.00000422 Ry

     iteration #  6     ecut=    30.00 Ry     beta= 0.70
     Davidson diagonalization with overlap
     ethr =  1.62E-08,  avg # of iterations =  2.3

     total cpu time spent up to now is        0.5 secs

     total energy              =    -485.64657148 Ry
     Harris-Foulkes estimate   =    -485.64657149 Ry
     estimated scf accuracy    <       0.00000004 Ry

     iteration #  7     ecut=    30.00 Ry     beta= 0.70
     Davidson diagonalization with overlap
     ethr =  1.64E-10,  avg # of iterations =  2.9

     total cpu time spent up to now is        0.6 secs

     End of self-consistent calculation

          k = 0.0000 0.0000 0.0000 (   531 PWs)   bands (ev):

  -113.6935 -67.8150 -67.8150 -67.8150  -3.0633   5.2591   5.2591   5.2682
     5.2682   5.2682  11.2849  11.2849  11.2849

          k =-0.2000 0.2000-0.2000 (   537 PWs)   bands (ev):

  -113.6929 -67.8148 -67.8133 -67.8133  -2.4994   5.0863   5.0863   5.1398
     5.3525   5.3525   8.6553  11.4982  11.4982

          k =-0.4000 0.4000-0.4000 (   535 PWs)   bands (ev):

  -113.6910 -67.8112 -67.8112 -67.8017  -1.1839   4.1811   4.8264   4.8264
     5.4969   5.4969   6.4125  11.9248  11.9248

          k = 0.0000 0.4000 0.0000 (   536 PWs)   bands (ev):

  -113.6923 -67.8133 -67.8116 -67.8116  -2.3335   4.8663   5.1924   5.3054
     5.3290   5.3290   9.5733  10.4431  10.4431

          k =-0.2000 0.6000-0.2000 (   533 PWs)   bands (ev):

  -113.6912 -67.8127 -67.8125 -67.8001  -1.3090   4.5767   5.0310   5.0878
     5.4494   5.5119   7.1360  10.3132  10.3223

          k = 0.6000-0.2000 0.6000 (   531 PWs)   bands (ev):

  -113.6906 -67.8117 -67.8067 -67.8009  -0.7010   4.2458   4.8713   4.9421
     5.5184   5.5638   6.3765   9.3074  11.2291

          k = 0.4000 0.0000 0.4000 (   532 PWs)   bands (ev):

  -113.6911 -67.8124 -67.8121 -67.7998  -1.6832   4.7102   4.8964   5.1100
     5.4003   5.5094   7.6841   9.4104  12.1071

          k = 0.0000 0.8000 0.0000 (   532 PWs)   bands (ev):

  -113.6903 -67.8077 -67.8077 -67.8021  -0.9065   4.9297   5.0595   5.3795
     5.5435   5.5435   7.3879   9.1442   9.1442

          k = 0.8000 0.0000 0.8000 (   526 PWs)   bands (ev):

  -113.6888 -67.8048 -67.8025 -67.7955  -0.5261   4.9704   5.1714   5.1992
     5.5736   5.9884   6.4896   7.4245   9.6024

          k = 0.6000-0.2000 1.0000 (   523 PWs)   bands (ev):

  -113.6884 -67.8093 -67.7950 -67.7929  -0.6090   4.7480   5.0086   5.0544
     5.5570   5.7135   7.0230   8.0073   9.1814

     highest occupied level (ev):    12.1071

!    total energy              =    -485.64657150 Ry
     Harris-Foulkes estimate   =    -485.64657150 Ry
     estimated scf accuracy    <          2.0E-10 Ry

     The total energy is the sum of the following terms:

     one-electron contribution =    -397.84627844 Ry
     hartree contribution      =     210.22975512 Ry
     xc contribution           =     -50.85935879 Ry
     ewald contribution        =    -247.17068938 Ry

     convergence has been achieved in   7 iterations

     Writing output data file ZnS-RS.save/
 
     init_run     :      0.12s CPU      0.13s WALL (       1 calls)
     electrons    :      0.38s CPU      0.39s WALL (       1 calls)

     Called by init_run:
     wfcinit      :      0.02s CPU      0.02s WALL (       1 calls)
     potinit      :      0.00s CPU      0.00s WALL (       1 calls)
     hinit0       :      0.10s CPU      0.11s WALL (       1 calls)

     Called by electrons:
     c_bands      :      0.29s CPU      0.30s WALL (       8 calls)
     sum_band     :      0.06s CPU      0.06s WALL (       8 calls)
     v_of_rho     :      0.00s CPU      0.01s WALL (       8 calls)
     newd         :      0.01s CPU      0.02s WALL (       8 calls)
     mix_rho      :      0.00s CPU      0.00s WALL (       8 calls)

     Called by c_bands:
     init_us_2    :      0.01s CPU      0.01s WALL (     170 calls)
     cegterg      :      0.28s CPU      0.28s WALL (      80 calls)

     Called by sum_band:
     sum_band:bec :      0.00s CPU      0.00s WALL (      80 calls)
     addusdens    :      0.02s CPU      0.02s WALL (       8 calls)

     Called by *egterg:
     h_psi        :      0.18s CPU      0.18s WALL (     270 calls)
     s_psi        :      0.00s CPU      0.01s WALL (     270 calls)
     g_psi        :      0.00s CPU      0.00s WALL (     180 calls)
     cdiaghg      :      0.06s CPU      0.06s WALL (     250 calls)

     Called by h_psi:
     h_psi:pot    :      0.17s CPU      0.18s WALL (     270 calls)
     h_psi:calbec :      0.01s CPU      0.02s WALL (     270 calls)
     vloc_psi     :      0.16s CPU      0.15s WALL (     270 calls)
     add_vuspsi   :      0.01s CPU      0.01s WALL (     270 calls)

     General routines
     calbec       :      0.01s CPU      0.02s WALL (     350 calls)
     fft          :      0.00s CPU      0.01s WALL (      90 calls)
     ffts         :      0.00s CPU      0.00s WALL (       8 calls)
     fftw         :      0.17s CPU      0.16s WALL (    6934 calls)
 
     Parallel routines
     fft_scatt_xy :      0.02s CPU      0.02s WALL (    7032 calls)
     fft_scatt_yz :      0.05s CPU      0.08s WALL (    7032 calls)
 
     PWSCF        :     0.58s CPU         0.67s WALL

 
   This run was terminated on:   8: 9:40   5Jul2020            

=------------------------------------------------------------------------------=
   JOB DONE.
=------------------------------------------------------------------------------=
