[Molden Format]
[FREQ]
    0.00
    0.00
    0.00
  358.28
  358.28
  358.28
[FR-COORD]
   Zn          0.00000        0.00000        0.00000
   S          -2.41526        2.41526        2.41526
[FR-NORM-COORD]
 vibration     1
  -0.00558   0.18636  -0.68208
  -0.00558   0.18636  -0.68208
 vibration     2
   0.06386  -0.67918  -0.18609
   0.06386  -0.67918  -0.18609
 vibration     3
   0.70419   0.06307   0.01147
   0.70419   0.06307   0.01147
 vibration     4
  -0.00000   0.44033  -0.00000
   0.00000  -0.89783  -0.00000
 vibration     5
   0.00000   0.00000  -0.44033
   0.00000   0.00000   0.89783
 vibration     6
  -0.44033  -0.00000   0.00000
   0.89783   0.00000   0.00000
