ANIMSTEPS   6
CRYSTAL
PRIMVEC
   -2.556203048    0.000000000    2.556203048
    0.000000000    2.556203048    2.556203048
   -2.556203048    2.556203048    0.000000000
PRIMCOORD  1
      2   1
   Zn     0.00000   0.00000   0.00000  -0.00056   0.01864  -0.06821
   S     -1.27810   1.27810   1.27810  -0.00056   0.01864  -0.06821
PRIMCOORD  2
      2   1
   Zn     0.00000   0.00000   0.00000   0.00639  -0.06792  -0.01861
   S     -1.27810   1.27810   1.27810   0.00639  -0.06792  -0.01861
PRIMCOORD  3
      2   1
   Zn     0.00000   0.00000   0.00000   0.07042   0.00631   0.00115
   S     -1.27810   1.27810   1.27810   0.07042   0.00631   0.00115
PRIMCOORD  4
      2   1
   Zn     0.00000   0.00000   0.00000  -0.00000   0.04403  -0.00000
   S     -1.27810   1.27810   1.27810   0.00000  -0.08978  -0.00000
PRIMCOORD  5
      2   1
   Zn     0.00000   0.00000   0.00000   0.00000   0.00000  -0.04403
   S     -1.27810   1.27810   1.27810   0.00000   0.00000   0.08978
PRIMCOORD  6
      2   1
   Zn     0.00000   0.00000   0.00000  -0.04403  -0.00000   0.00000
   S     -1.27810   1.27810   1.27810   0.08978   0.00000   0.00000
