
     Program DYNMAT v.6.3MaX starts on  5Jul2020 at  8:24:58 

     This program is part of the open-source Quantum ESPRESSO suite
     for quantum simulation of materials; please cite
         "P. Giannozzi et al., J. Phys.:Condens. Matter 21 395502 (2009);
         "P. Giannozzi et al., J. Phys.:Condens. Matter 29 465901 (2017);
          URL http://www.quantum-espresso.org", 
     in publications or presentations arising from this work. More details at
     http://www.quantum-espresso.org/quote

     Parallel version (MPI), running on     4 processors

     MPI processes distributed on     1 nodes
     R & G space division:  proc/nbgrp/npool/nimage =       4

     Reading Dynamical Matrix from file ZnS-ZB.gamma
     ...Force constants read
     ...epsilon and Z* read
     Acoustic Sum Rule: || Z*(ASR) - Z*(orig)|| =    5.565147E-01
     Acoustic Sum Rule: ||dyn(ASR) - dyn(orig)||=    8.243112E-03
     A direction for q was not specified:TO-LO splitting will be absent

     Polarizability (A^3 units)
     multiply by 0.344752 for Clausius-Mossotti correction
        15.157455    0.000000    0.000000
         0.000000   15.157455    0.000000
         0.000000    0.000000   15.157455

     IR activities are in (D/A)^2/amu units

# mode   [cm-1]    [THz]      IR
    1     -0.00   -0.0000    0.0000
    2      0.00    0.0000    0.0000
    3      0.00    0.0000    0.0000
    4    358.28   10.7409    5.3763
    5    358.28   10.7409    5.3763
    6    358.28   10.7409    5.3763
 
     DYNMAT       :     0.00s CPU         0.00s WALL

 
   This run was terminated on:   8:24:58   5Jul2020            

=------------------------------------------------------------------------------=
   JOB DONE.
=------------------------------------------------------------------------------=
