
     Program PHONON v.6.3MaX starts on  5Jul2020 at  8:24:23 

     This program is part of the open-source Quantum ESPRESSO suite
     for quantum simulation of materials; please cite
         "P. Giannozzi et al., J. Phys.:Condens. Matter 21 395502 (2009);
         "P. Giannozzi et al., J. Phys.:Condens. Matter 29 465901 (2017);
          URL http://www.quantum-espresso.org", 
     in publications or presentations arising from this work. More details at
     http://www.quantum-espresso.org/quote

     Parallel version (MPI), running on     4 processors

     MPI processes distributed on     1 nodes
     R & G space division:  proc/nbgrp/npool/nimage =       4

     Reading data from directory:
     calc/ZnS-ZB.save/

     IMPORTANT: XC functional enforced from input :
     Exchange-correlation      = PBE ( 1  4  3  4 0 0)
     Any further DFT definition will be discarded
     Please, verify this is what you really want

 
     Parallelization info
     --------------------
     sticks:   dense  smooth     PW     G-vecs:    dense   smooth      PW
     Min          94      94     30                 1255     1255     234
     Max          95      95     31                 1258     1258     238
     Sum         379     379    121                 5029     5029     941
 

     Check: negative/imaginary core charge=   -0.000002    0.000000

     Calculation of q =    0.0000000   0.0000000   0.0000000

     phonons of ZnS-ZB at Gamma point                                           

     bravais-lattice index     =            2
     lattice parameter (alat)  =       9.6610  a.u.
     unit-cell volume          =     225.4305 (a.u.)^3
     number of atoms/cell      =            2
     number of atomic types    =            2
     kinetic-energy cut-off    =      30.0000  Ry
     charge density cut-off    =     120.0000  Ry
     convergence threshold     =      5.0E-16
     beta                      =       0.7000
     number of iterations used =            4
     Exchange-correlation      = PBE ( 1  4  3  4 0 0)


     celldm(1)=    9.66105  celldm(2)=    0.00000  celldm(3)=    0.00000
     celldm(4)=    0.00000  celldm(5)=    0.00000  celldm(6)=    0.00000

     crystal axes: (cart. coord. in units of alat)
               a(1) = ( -0.5000  0.0000  0.5000 )  
               a(2) = (  0.0000  0.5000  0.5000 )  
               a(3) = ( -0.5000  0.5000  0.0000 )  

     reciprocal axes: (cart. coord. in units 2 pi/alat)
               b(1) = ( -1.0000 -1.0000  1.0000 )  
               b(2) = (  1.0000  1.0000  1.0000 )  
               b(3) = ( -1.0000  1.0000 -1.0000 )  


     Atoms inside the unit cell: 

     Cartesian axes

     site n.  atom      mass           positions (alat units)
        1     Zn  65.3800   tau(    1) = (    0.00000    0.00000    0.00000  )
        2     S   32.0650   tau(    2) = (   -0.25000    0.25000    0.25000  )

     Computing dynamical matrix for 
                    q = (   0.0000000   0.0000000   0.0000000 )
 
     25 Sym.Ops. (with q -> -q+G )


     G cutoff =  283.7069  (   1255 G-vectors)     FFT grid: ( 24, 24, 24)
     number of k points=    10
                       cart. coord. in units 2pi/alat
        k(    1) = (   0.0000000   0.0000000   0.0000000), wk =   0.0160000
        k(    2) = (  -0.2000000   0.2000000  -0.2000000), wk =   0.1280000
        k(    3) = (  -0.4000000   0.4000000  -0.4000000), wk =   0.1280000
        k(    4) = (   0.0000000   0.4000000   0.0000000), wk =   0.0960000
        k(    5) = (  -0.2000000   0.6000000  -0.2000000), wk =   0.3840000
        k(    6) = (   0.6000000  -0.2000000   0.6000000), wk =   0.3840000
        k(    7) = (   0.4000000   0.0000000   0.4000000), wk =   0.1920000
        k(    8) = (   0.0000000   0.8000000   0.0000000), wk =   0.0960000
        k(    9) = (   0.8000000   0.0000000   0.8000000), wk =   0.1920000
        k(   10) = (   0.6000000  -0.2000000   1.0000000), wk =   0.3840000

     PseudoPot. # 1 for Zn read from file:
     ~/Documents/quantum_simulations/PP_eff/Zn_pbe_v1.uspp.F.UPF
     MD5 check sum: Not computed, couldn't open file
     Pseudo is Ultrasoft, Zval = 20.0
     Generated by new atomic code, or converted to UPF format
     Using radial grid of  943 points,  6 beta functions with: 
                l(1) =   0
                l(2) =   0
                l(3) =   1
                l(4) =   1
                l(5) =   2
                l(6) =   2
     Q(r) pseudized with  8 coefficients,  rinner =    1.100   1.100   1.100
                                                       1.100   1.100

     PseudoPot. # 2 for S  read from file:
     ~/Documents/quantum_simulations/PP_eff/s_pbe_v1.4.uspp.F.UPF
     MD5 check sum: Not computed, couldn't open file
     Pseudo is Ultrasoft + core correction, Zval =  6.0
     Generated by new atomic code, or converted to UPF format
     Using radial grid of  907 points,  6 beta functions with: 
                l(1) =   0
                l(2) =   0
                l(3) =   1
                l(4) =   1
                l(5) =   2
                l(6) =   2
     Q(r) pseudized with  8 coefficients,  rinner =    1.300   1.300   1.300
                                                       1.300   1.300

     Mode symmetry, T_d (-43m)  point group:


     Electric field:
     Dielectric constant
     Born effective charges as d Force / d E


     Atomic displacements:
     There are   2 irreducible representations

     Representation     1      3 modes -T_2  G_15 P_4  To be done

     Representation     2      3 modes -T_2  G_15 P_4  To be done



     Alpha used in Ewald sum =   1.1000
     PHONON       :     0.32s CPU         0.34s WALL


     Electric Fields Calculation

      iter #   1 total cpu time :     1.9 secs   av.it.:   8.6
      thresh= 1.000E-02 alpha_mix =  0.700 |ddv_scf|^2 =  3.764E-07

      iter #   2 total cpu time :     2.5 secs   av.it.:  15.5
      thresh= 6.135E-05 alpha_mix =  0.700 |ddv_scf|^2 =  3.926E-08

      iter #   3 total cpu time :     3.1 secs   av.it.:  15.1
      thresh= 1.981E-05 alpha_mix =  0.700 |ddv_scf|^2 =  1.232E-09

      iter #   4 total cpu time :     3.8 secs   av.it.:  15.6
      thresh= 3.510E-06 alpha_mix =  0.700 |ddv_scf|^2 =  1.261E-11

      iter #   5 total cpu time :     4.4 secs   av.it.:  15.5
      thresh= 3.552E-07 alpha_mix =  0.700 |ddv_scf|^2 =  3.135E-13

      iter #   6 total cpu time :     5.1 secs   av.it.:  16.8
      thresh= 5.599E-08 alpha_mix =  0.700 |ddv_scf|^2 =  2.287E-15

      iter #   7 total cpu time :     5.8 secs   av.it.:  15.8
      thresh= 4.782E-09 alpha_mix =  0.700 |ddv_scf|^2 =  1.674E-16

     End of electric fields calculation

          Dielectric constant in cartesian axis 

          (       6.701906865       0.000000000       0.000000000 )
          (      -0.000000000       6.701906865      -0.000000000 )
          (       0.000000000      -0.000000000       6.701906865 )

          Effective charges (d Force / dE) in cartesian axis

           atom      1   Zn 
      Ex  (        2.46626        0.00000        0.00000 )
      Ey  (        0.00000        2.46626       -0.00000 )
      Ez  (        0.00000       -0.00000        2.46626 )
           atom      2   S  
      Ex  (       -2.01187        0.00000       -0.00000 )
      Ey  (        0.00000       -2.01187        0.00000 )
      Ez  (       -0.00000        0.00000       -2.01187 )


     Representation #  1 modes #   1  2  3

     Self-consistent Calculation

      iter #   1 total cpu time :     6.6 secs   av.it.:   9.1
      thresh= 1.000E-02 alpha_mix =  0.700 |ddv_scf|^2 =  7.244E-07

      iter #   2 total cpu time :     7.3 secs   av.it.:  17.2
      thresh= 8.511E-05 alpha_mix =  0.700 |ddv_scf|^2 =  6.362E-08

      iter #   3 total cpu time :     8.0 secs   av.it.:  15.5
      thresh= 2.522E-05 alpha_mix =  0.700 |ddv_scf|^2 =  1.400E-09

      iter #   4 total cpu time :     8.6 secs   av.it.:  16.4
      thresh= 3.742E-06 alpha_mix =  0.700 |ddv_scf|^2 =  1.981E-12

      iter #   5 total cpu time :     9.3 secs   av.it.:  17.5
      thresh= 1.407E-07 alpha_mix =  0.700 |ddv_scf|^2 =  6.787E-14

      iter #   6 total cpu time :    10.1 secs   av.it.:  17.0
      thresh= 2.605E-08 alpha_mix =  0.700 |ddv_scf|^2 =  9.732E-16

      iter #   7 total cpu time :    10.7 secs   av.it.:  16.5
      thresh= 3.120E-09 alpha_mix =  0.700 |ddv_scf|^2 =  2.369E-17

     End of self-consistent calculation

     Convergence has been achieved 


     Representation #  2 modes #   4  5  6

     Self-consistent Calculation

      iter #   1 total cpu time :    11.3 secs   av.it.:  12.4
      thresh= 1.000E-02 alpha_mix =  0.700 |ddv_scf|^2 =  5.359E-05

      iter #   2 total cpu time :    12.0 secs   av.it.:  16.3
      thresh= 7.320E-04 alpha_mix =  0.700 |ddv_scf|^2 =  5.245E-07

      iter #   3 total cpu time :    12.7 secs   av.it.:  17.8
      thresh= 7.242E-05 alpha_mix =  0.700 |ddv_scf|^2 =  3.039E-08

      iter #   4 total cpu time :    13.4 secs   av.it.:  17.4
      thresh= 1.743E-05 alpha_mix =  0.700 |ddv_scf|^2 =  9.920E-10

      iter #   5 total cpu time :    14.1 secs   av.it.:  17.3
      thresh= 3.150E-06 alpha_mix =  0.700 |ddv_scf|^2 =  2.489E-11

      iter #   6 total cpu time :    14.8 secs   av.it.:  16.8
      thresh= 4.989E-07 alpha_mix =  0.700 |ddv_scf|^2 =  1.360E-13

      iter #   7 total cpu time :    15.5 secs   av.it.:  15.9
      thresh= 3.688E-08 alpha_mix =  0.700 |ddv_scf|^2 =  9.867E-15

      iter #   8 total cpu time :    16.2 secs   av.it.:  16.6
      thresh= 9.933E-09 alpha_mix =  0.700 |ddv_scf|^2 =  7.776E-17

     End of self-consistent calculation

     Convergence has been achieved 
 
     Number of q in the star =    1
     List of q in the star:
          1   0.000000000   0.000000000   0.000000000

          Dielectric constant in cartesian axis 

          (       6.701906865       0.000000000       0.000000000 )
          (      -0.000000000       6.701906865      -0.000000000 )
          (       0.000000000      -0.000000000       6.701906865 )

          Effective charges (d Force / dE) in cartesian axis

           atom      1   Zn 
      Ex  (        2.46626        0.00000        0.00000 )
      Ey  (        0.00000        2.46626       -0.00000 )
      Ez  (        0.00000       -0.00000        2.46626 )
           atom      2   S  
      Ex  (       -2.01187        0.00000       -0.00000 )
      Ey  (        0.00000       -2.01187        0.00000 )
      Ez  (       -0.00000        0.00000       -2.01187 )

     Diagonalizing the dynamical matrix

     q = (    0.000000000   0.000000000   0.000000000 ) 

 **************************************************************************
     freq (    1) =      -0.792385 [THz] =     -26.431128 [cm-1]
     freq (    2) =      -0.792385 [THz] =     -26.431128 [cm-1]
     freq (    3) =      -0.792385 [THz] =     -26.431128 [cm-1]
     freq (    4) =      10.762008 [THz] =     358.981947 [cm-1]
     freq (    5) =      10.762008 [THz] =     358.981947 [cm-1]
     freq (    6) =      10.762008 [THz] =     358.981947 [cm-1]
 **************************************************************************

     Mode symmetry, T_d (-43m)  point group:

     freq (  1 -  3) =        -26.4  [cm-1]   --> T_2  G_15 P_4   I+R
     freq (  4 -  6) =        359.0  [cm-1]   --> T_2  G_15 P_4   I+R
 
     PHONON       :    15.32s CPU        16.19s WALL

     INITIALIZATION: 
     phq_setup    :      0.00s CPU      0.00s WALL (       1 calls)
     phq_init     :      0.13s CPU      0.13s WALL (       1 calls)
 
     phq_init     :      0.13s CPU      0.13s WALL (       1 calls)
     set_drhoc    :      0.02s CPU      0.02s WALL (       3 calls)
     init_vloc    :      0.00s CPU      0.00s WALL (       1 calls)
     init_us_1    :      0.10s CPU      0.10s WALL (       1 calls)
     newd         :      0.00s CPU      0.01s WALL (       1 calls)
     dvanqq       :      0.02s CPU      0.02s WALL (       1 calls)
     drho         :      0.06s CPU      0.07s WALL (       1 calls)
     cmpt_qdipol  :      0.00s CPU      0.00s WALL (       1 calls)
 
     DIELECTRIC CONSTANT AND EFFECTIVE CHARGES:
     solve_e      :      5.13s CPU      5.44s WALL (       1 calls)
     dielec       :      0.00s CPU      0.00s WALL (       1 calls)
     zstar_eu     :      0.38s CPU      0.40s WALL (       1 calls)
 
     DYNAMICAL MATRIX:
     dynmat0      :      0.02s CPU      0.03s WALL (       1 calls)
     phqscf       :      9.47s CPU     10.02s WALL (       1 calls)
     dynmatrix    :      0.00s CPU      0.00s WALL (       1 calls)
 
     phqscf       :      9.47s CPU     10.02s WALL (       1 calls)
     solve_linter :      9.46s CPU      9.99s WALL (       2 calls)
     drhodv       :      0.02s CPU      0.02s WALL (       2 calls)
 
     dynmat0      :      0.02s CPU      0.03s WALL (       1 calls)
     dynmat_us    :      0.01s CPU      0.01s WALL (       1 calls)
     d2ionq       :      0.00s CPU      0.00s WALL (       1 calls)
     dynmatcc     :      0.01s CPU      0.01s WALL (       1 calls)
 
     dynmat_us    :      0.01s CPU      0.01s WALL (       1 calls)
     addusdynmat  :      0.00s CPU      0.00s WALL (       1 calls)
 
     phqscf       :      9.47s CPU     10.02s WALL (       1 calls)
     solve_linter :      9.46s CPU      9.99s WALL (       2 calls)
 
     solve_linter :      9.46s CPU      9.99s WALL (       2 calls)
     dvqpsi_us    :      0.14s CPU      0.15s WALL (     120 calls)
     ortho        :      0.16s CPU      0.13s WALL (     690 calls)
     cgsolve      :     12.54s CPU     13.21s WALL (     690 calls)
     incdrhoscf   :      0.55s CPU      0.57s WALL (     690 calls)
     addusddens   :      0.08s CPU      0.09s WALL (      17 calls)
     vpsifft      :      0.25s CPU      0.28s WALL (     390 calls)
     dv_of_drho   :      0.04s CPU      0.05s WALL (      69 calls)
     mix_pot      :      0.02s CPU      0.02s WALL (      22 calls)
     psymdvscf    :      0.30s CPU      0.30s WALL (      15 calls)
     newdq        :      0.25s CPU      0.26s WALL (      22 calls)
     adddvscf     :      0.04s CPU      0.04s WALL (     570 calls)
     drhodvus     :      0.00s CPU      0.00s WALL (       2 calls)
 
     dvqpsi_us    :      0.14s CPU      0.15s WALL (     120 calls)
     dvqpsi_us_on :      0.03s CPU      0.06s WALL (     120 calls)
 
     cgsolve      :     12.54s CPU     13.21s WALL (     690 calls)
     ch_psi       :     12.20s CPU     12.85s WALL (   15293 calls)
 
     ch_psi       :     12.20s CPU     12.85s WALL (   15293 calls)
     h_psi        :      9.11s CPU      9.63s WALL (   15293 calls)
     last         :      2.27s CPU      2.37s WALL (   15293 calls)
 
     h_psi        :      9.11s CPU      9.63s WALL (   15293 calls)
     add_vuspsi   :      0.64s CPU      0.71s WALL (   15293 calls)
 
     incdrhoscf   :      0.55s CPU      0.57s WALL (     690 calls)
     addusdbec    :      0.06s CPU      0.06s WALL (     750 calls)
 
     drhodvus     :      0.00s CPU      0.00s WALL (       2 calls)
 
      General routines
     calbec       :      1.91s CPU      1.98s WALL (   33866 calls)
     fft          :      0.05s CPU      0.08s WALL (    1223 calls)
     ffts         :      0.00s CPU      0.01s WALL (     138 calls)
     fftw         :      7.99s CPU      8.31s WALL (  338418 calls)
     davcio       :      0.06s CPU      0.15s WALL (    3201 calls)
     write_rec    :      0.01s CPU      0.02s WALL (      24 calls)
 
 
     PHONON       :    15.32s CPU        16.19s WALL

 
   This run was terminated on:   8:24:39   5Jul2020            

=------------------------------------------------------------------------------=
   JOB DONE.
=------------------------------------------------------------------------------=
