
     Program PWSCF v.6.3MaX starts on  5Jul2020 at  8:24: 6 

     This program is part of the open-source Quantum ESPRESSO suite
     for quantum simulation of materials; please cite
         "P. Giannozzi et al., J. Phys.:Condens. Matter 21 395502 (2009);
         "P. Giannozzi et al., J. Phys.:Condens. Matter 29 465901 (2017);
          URL http://www.quantum-espresso.org", 
     in publications or presentations arising from this work. More details at
     http://www.quantum-espresso.org/quote

     Parallel version (MPI), running on     4 processors

     MPI processes distributed on     1 nodes
     R & G space division:  proc/nbgrp/npool/nimage =       4
     Waiting for input...
     Reading input from standard input

     Current dimensions of program PWSCF are:
     Max number of different atomic species (ntypx) = 10
     Max number of k-points (npk) =  40000
     Max angular momentum in pseudopotentials (lmaxx) =  3

     Subspace diagonalization in iterative solution of the eigenvalue problem:
     a serial algorithm will be used

 
     Parallelization info
     --------------------
     sticks:   dense  smooth     PW     G-vecs:    dense   smooth      PW
     Min          94      94     30                 1255     1255     234
     Max          95      95     31                 1258     1258     238
     Sum         379     379    121                 5029     5029     941
 


     bravais-lattice index     =            2
     lattice parameter (alat)  =       9.6610  a.u.
     unit-cell volume          =     225.4305 (a.u.)^3
     number of atoms/cell      =            2
     number of atomic types    =            2
     number of electrons       =        26.00
     number of Kohn-Sham states=           13
     kinetic-energy cutoff     =      30.0000  Ry
     charge density cutoff     =     120.0000  Ry
     convergence threshold     =      1.0E-08
     mixing beta               =       0.4000
     number of iterations used =            8  plain     mixing
     Exchange-correlation      =  SLA  PW   PBX  PBC ( 1  4  3  4 0 0)

     celldm(1)=   9.661047  celldm(2)=   0.000000  celldm(3)=   0.000000
     celldm(4)=   0.000000  celldm(5)=   0.000000  celldm(6)=   0.000000

     crystal axes: (cart. coord. in units of alat)
               a(1) = (  -0.500000   0.000000   0.500000 )  
               a(2) = (   0.000000   0.500000   0.500000 )  
               a(3) = (  -0.500000   0.500000   0.000000 )  

     reciprocal axes: (cart. coord. in units 2 pi/alat)
               b(1) = ( -1.000000 -1.000000  1.000000 )  
               b(2) = (  1.000000  1.000000  1.000000 )  
               b(3) = ( -1.000000  1.000000 -1.000000 )  


     PseudoPot. # 1 for Zn read from file:
     ~/Documents/quantum_simulations/PP_eff/Zn_pbe_v1.uspp.F.UPF
     MD5 check sum: Not computed, couldn't open file
     Pseudo is Ultrasoft, Zval = 20.0
     Generated by new atomic code, or converted to UPF format
     Using radial grid of  943 points,  6 beta functions with: 
                l(1) =   0
                l(2) =   0
                l(3) =   1
                l(4) =   1
                l(5) =   2
                l(6) =   2
     Q(r) pseudized with  8 coefficients,  rinner =    1.100   1.100   1.100
                                                       1.100   1.100

     PseudoPot. # 2 for S  read from file:
     ~/Documents/quantum_simulations/PP_eff/s_pbe_v1.4.uspp.F.UPF
     MD5 check sum: Not computed, couldn't open file
     Pseudo is Ultrasoft + core correction, Zval =  6.0
     Generated by new atomic code, or converted to UPF format
     Using radial grid of  907 points,  6 beta functions with: 
                l(1) =   0
                l(2) =   0
                l(3) =   1
                l(4) =   1
                l(5) =   2
                l(6) =   2
     Q(r) pseudized with  8 coefficients,  rinner =    1.300   1.300   1.300
                                                       1.300   1.300

     atomic species   valence    mass     pseudopotential
        Zn            20.00    65.38000     Zn( 1.00)
        S              6.00    32.06500     S ( 1.00)

     24 Sym. Ops. (no inversion) found



   Cartesian axes

     site n.     atom                  positions (alat units)
         1           Zn  tau(   1) = (   0.0000000   0.0000000   0.0000000  )
         2           S   tau(   2) = (  -0.2500000   0.2500000   0.2500000  )

     number of k points=    10
                       cart. coord. in units 2pi/alat
        k(    1) = (   0.0000000   0.0000000   0.0000000), wk =   0.0160000
        k(    2) = (  -0.2000000   0.2000000  -0.2000000), wk =   0.1280000
        k(    3) = (  -0.4000000   0.4000000  -0.4000000), wk =   0.1280000
        k(    4) = (   0.0000000   0.4000000   0.0000000), wk =   0.0960000
        k(    5) = (  -0.2000000   0.6000000  -0.2000000), wk =   0.3840000
        k(    6) = (   0.6000000  -0.2000000   0.6000000), wk =   0.3840000
        k(    7) = (   0.4000000   0.0000000   0.4000000), wk =   0.1920000
        k(    8) = (   0.0000000   0.8000000   0.0000000), wk =   0.0960000
        k(    9) = (   0.8000000   0.0000000   0.8000000), wk =   0.1920000
        k(   10) = (   0.6000000  -0.2000000   1.0000000), wk =   0.3840000

     Dense  grid:     5029 G-vectors     FFT dimensions: (  24,  24,  24)

     Estimated max dynamical RAM per process >       7.51 MB

     Estimated total dynamical RAM >      30.04 MB

     Check: negative/imaginary core charge=   -0.000002    0.000000

     Initial potential from superposition of free atoms

     starting charge   25.99982, renormalised to   26.00000
     Starting wfcs are   17 randomized atomic wfcs

     total cpu time spent up to now is        0.2 secs

     Self-consistent Calculation

     iteration #  1     ecut=    30.00 Ry     beta= 0.40
     Davidson diagonalization with overlap
     ethr =  1.00E-02,  avg # of iterations =  1.1

     Threshold (ethr) on eigenvalues was too large:
     Diagonalizing with lowered threshold

     Davidson diagonalization with overlap
     ethr =  4.52E-04,  avg # of iterations =  2.0

     total cpu time spent up to now is        0.3 secs

     total energy              =    -485.65792972 Ry
     Harris-Foulkes estimate   =    -485.72403810 Ry
     estimated scf accuracy    <       0.12768860 Ry

     iteration #  2     ecut=    30.00 Ry     beta= 0.40
     Davidson diagonalization with overlap
     ethr =  4.91E-04,  avg # of iterations =  2.3

     total cpu time spent up to now is        0.3 secs

     total energy              =    -485.68489773 Ry
     Harris-Foulkes estimate   =    -485.69241560 Ry
     estimated scf accuracy    <       0.02066716 Ry

     iteration #  3     ecut=    30.00 Ry     beta= 0.40
     Davidson diagonalization with overlap
     ethr =  7.95E-05,  avg # of iterations =  2.1

     total cpu time spent up to now is        0.4 secs

     total energy              =    -485.68834323 Ry
     Harris-Foulkes estimate   =    -485.68848048 Ry
     estimated scf accuracy    <       0.00241427 Ry

     iteration #  4     ecut=    30.00 Ry     beta= 0.40
     Davidson diagonalization with overlap
     ethr =  9.29E-06,  avg # of iterations =  1.9

     total cpu time spent up to now is        0.4 secs

     total energy              =    -485.68848992 Ry
     Harris-Foulkes estimate   =    -485.68845340 Ry
     estimated scf accuracy    <       0.00040284 Ry

     iteration #  5     ecut=    30.00 Ry     beta= 0.40
     Davidson diagonalization with overlap
     ethr =  1.55E-06,  avg # of iterations =  1.1

     total cpu time spent up to now is        0.5 secs

     total energy              =    -485.68850266 Ry
     Harris-Foulkes estimate   =    -485.68850554 Ry
     estimated scf accuracy    <       0.00000811 Ry

     iteration #  6     ecut=    30.00 Ry     beta= 0.40
     Davidson diagonalization with overlap
     ethr =  3.12E-08,  avg # of iterations =  3.0

     total cpu time spent up to now is        0.5 secs

     total energy              =    -485.68850670 Ry
     Harris-Foulkes estimate   =    -485.68850646 Ry
     estimated scf accuracy    <       0.00000036 Ry

     iteration #  7     ecut=    30.00 Ry     beta= 0.40
     Davidson diagonalization with overlap
     ethr =  1.37E-09,  avg # of iterations =  2.7

     total cpu time spent up to now is        0.6 secs

     total energy              =    -485.68850676 Ry
     Harris-Foulkes estimate   =    -485.68850683 Ry
     estimated scf accuracy    <       0.00000016 Ry

     iteration #  8     ecut=    30.00 Ry     beta= 0.40
     Davidson diagonalization with overlap
     ethr =  5.98E-10,  avg # of iterations =  2.0

     total cpu time spent up to now is        0.6 secs

     End of self-consistent calculation

          k = 0.0000 0.0000 0.0000 (   609 PWs)   bands (ev):

  -116.2978 -70.3960 -70.3960 -70.3960  -5.1471   2.1066   2.1066   2.1066
     2.8069   2.8069   9.2907   9.2907   9.2907

          k =-0.2000 0.2000-0.2000 (   628 PWs)   bands (ev):

  -116.3013 -70.4120 -70.4065 -70.4065  -4.7704   2.0827   2.1631   2.1631
     2.7935   2.7935   6.8431   8.8463   8.8463

          k =-0.4000 0.4000-0.4000 (   619 PWs)   bands (ev):

  -116.2994 -70.4094 -70.3987 -70.3987  -4.0266   2.2503   2.2503   2.3622
     2.8321   2.8321   3.9220   8.2517   8.2517

          k = 0.0000 0.4000 0.0000 (   613 PWs)   bands (ev):

  -116.2976 -70.3970 -70.3970 -70.3945  -4.6437   2.0131   2.2398   2.2398
     2.7482   2.8350   7.1945   8.1051   8.1051

          k =-0.2000 0.6000-0.2000 (   623 PWs)   bands (ev):

  -116.2999 -70.4078 -70.4035 -70.4014  -4.0040   2.0699   2.3401   2.3639
     2.8074   2.8647   4.9015   7.1719   7.4815

          k = 0.6000-0.2000 0.6000 (   624 PWs)   bands (ev):

  -116.2992 -70.4069 -70.4035 -70.3970  -3.7099   2.2355   2.3482   2.6477
     2.8270   3.0038   3.5512   6.3913   7.7161

          k = 0.4000 0.0000 0.4000 (   630 PWs)   bands (ev):

  -116.3016 -70.4125 -70.4118 -70.4062  -4.2548   2.1463   2.2403   2.2461
     2.7631   2.8496   5.5696   6.8590   8.5497

          k = 0.0000 0.8000 0.0000 (   628 PWs)   bands (ev):

  -116.3005 -70.4131 -70.4037 -70.4037  -3.6452   1.9022   2.5142   2.5142
     2.8751   2.8978   4.6605   6.6394   6.6394

          k = 0.8000 0.0000 0.8000 (   632 PWs)   bands (ev):

  -116.3009 -70.4121 -70.4089 -70.4044  -3.4533   2.0602   2.5102   2.6054
     2.8667   3.2678   3.8806   5.5013   6.7614

          k = 0.6000-0.2000 1.0000 (   635 PWs)   bands (ev):

  -116.3014 -70.4165 -70.4103 -70.4038  -3.5614   2.1858   2.3972   2.6068
     2.8148   3.0691   4.1799   5.6842   6.6460

     highest occupied level (ev):     9.2907

!    total energy              =    -485.68850679 Ry
     Harris-Foulkes estimate   =    -485.68850679 Ry
     estimated scf accuracy    <          3.7E-09 Ry

     The total energy is the sum of the following terms:

     one-electron contribution =    -433.55513206 Ry
     hartree contribution      =     225.53320499 Ry
     xc contribution           =     -50.83149515 Ry
     ewald contribution        =    -226.83508456 Ry

     convergence has been achieved in   8 iterations

     Writing output data file ZnS-ZB.save/
 
     init_run     :      0.14s CPU      0.15s WALL (       1 calls)
     electrons    :      0.42s CPU      0.44s WALL (       1 calls)

     Called by init_run:
     wfcinit      :      0.01s CPU      0.02s WALL (       1 calls)
     potinit      :      0.00s CPU      0.00s WALL (       1 calls)
     hinit0       :      0.12s CPU      0.12s WALL (       1 calls)

     Called by electrons:
     c_bands      :      0.32s CPU      0.33s WALL (       9 calls)
     sum_band     :      0.07s CPU      0.08s WALL (       9 calls)
     v_of_rho     :      0.02s CPU      0.01s WALL (       9 calls)
     newd         :      0.02s CPU      0.03s WALL (       9 calls)
     mix_rho      :      0.00s CPU      0.00s WALL (       9 calls)

     Called by c_bands:
     init_us_2    :      0.01s CPU      0.01s WALL (     190 calls)
     cegterg      :      0.28s CPU      0.30s WALL (      90 calls)

     Called by sum_band:
     sum_band:bec :      0.00s CPU      0.00s WALL (      90 calls)
     addusdens    :      0.03s CPU      0.03s WALL (       9 calls)

     Called by *egterg:
     h_psi        :      0.18s CPU      0.20s WALL (     282 calls)
     s_psi        :      0.01s CPU      0.01s WALL (     282 calls)
     g_psi        :      0.00s CPU      0.00s WALL (     182 calls)
     cdiaghg      :      0.06s CPU      0.06s WALL (     262 calls)

     Called by h_psi:
     h_psi:pot    :      0.18s CPU      0.20s WALL (     282 calls)
     h_psi:calbec :      0.01s CPU      0.02s WALL (     282 calls)
     vloc_psi     :      0.16s CPU      0.16s WALL (     282 calls)
     add_vuspsi   :      0.01s CPU      0.01s WALL (     282 calls)

     General routines
     calbec       :      0.01s CPU      0.03s WALL (     372 calls)
     fft          :      0.01s CPU      0.01s WALL (     101 calls)
     ffts         :      0.00s CPU      0.00s WALL (       9 calls)
     fftw         :      0.17s CPU      0.18s WALL (    7366 calls)
 
     Parallel routines
     fft_scatt_xy :      0.02s CPU      0.02s WALL (    7476 calls)
     fft_scatt_yz :      0.08s CPU      0.09s WALL (    7476 calls)
 
     PWSCF        :     0.61s CPU         0.67s WALL

 
   This run was terminated on:   8:24: 7   5Jul2020            

=------------------------------------------------------------------------------=
   JOB DONE.
=------------------------------------------------------------------------------=
